<?xml version="1.0" encoding="UTF-8"?>

<!-- generated on 09/29/20 21:04:44 by Eclipse SUMO Version v1_5_0+0742-a5dc31a60d
<configuration xmlns:xsi="http://www.w3.org/2001/XMLSchema-instance" xsi:noNamespaceSchemaLocation="http://sumo.dlr.de/xsd/sumoConfiguration.xsd">

    <input>
        <net-file value="D:\Career\GP\RLRep\Anarcho1.43\Sumo_files/Anarcho1.4.net.xml"/>
        <route-files value="D:\Career\GP\RLRep\Anarcho1.43\Sumo_files/Anarcho1.4.rou.xml"/>
    </input>

    <output>
        <tripinfo-output value="tripinfo.xml"/>
    </output>

    <time>
        <begin value="0"/>
        <end value="10000"/>
    </time>

    <random_number>
        <seed value="5"/>
    </random_number>

    <gui_only>
        <start value="true"/>
    </gui_only>

</configuration>
-->

<tripinfos xmlns:xsi="http://www.w3.org/2001/XMLSchema-instance" xsi:noNamespaceSchemaLocation="http://sumo.dlr.de/xsd/tripinfo_file.xsd">
    <tripinfo id="RB_L0I0" depart="0.00" departLane="r2_0" departPos="447.00" departSpeed="0.00" departDelay="0.00" arrival="7.00" arrivalLane="r2_0" arrivalPos="469.00" arrivalSpeed="5.00" duration="7.00" routeLength="22.00" waitingTime="0.00" waitingCount="0" stopTime="0.00" timeLoss="2.00" rerouteNo="0" devices="tripinfo_RB_L0I0" vType="Ego" speedFactor="0.88" vaporized=""/>
    <tripinfo id="RB_L1I0" depart="0.00" departLane="r2_1" departPos="447.00" departSpeed="0.00" departDelay="0.00" arrival="7.00" arrivalLane="r2_1" arrivalPos="469.00" arrivalSpeed="5.00" duration="7.00" routeLength="22.00" waitingTime="0.00" waitingCount="0" stopTime="0.00" timeLoss="2.00" rerouteNo="0" devices="tripinfo_RB_L1I0" vType="Ego" speedFactor="0.96" vaporized=""/>
    <tripinfo id="RB_L2I0" depart="0.00" departLane="r2_2" departPos="447.00" departSpeed="0.00" departDelay="0.00" arrival="7.00" arrivalLane="r2_2" arrivalPos="469.00" arrivalSpeed="5.00" duration="7.00" routeLength="22.00" waitingTime="0.00" waitingCount="0" stopTime="0.00" timeLoss="2.00" rerouteNo="0" devices="tripinfo_RB_L2I0" vType="Ego" speedFactor="1.11" vaporized=""/>
    <tripinfo id="RB_L2I1" depart="0.00" departLane="r2_2" departPos="437.50" departSpeed="0.00" departDelay="0.00" arrival="10.00" arrivalLane="r2_1" arrivalPos="469.00" arrivalSpeed="5.00" duration="10.00" routeLength="31.50" waitingTime="0.00" waitingCount="0" stopTime="0.00" timeLoss="2.80" rerouteNo="0" devices="tripinfo_RB_L2I1" vType="Ego" speedFactor="1.15" vaporized=""/>
    <tripinfo id="RB_L1I1" depart="0.00" departLane="r2_1" departPos="437.50" departSpeed="0.00" departDelay="0.00" arrival="11.00" arrivalLane="r2_1" arrivalPos="469.00" arrivalSpeed="4.00" duration="11.00" routeLength="31.50" waitingTime="0.00" waitingCount="0" stopTime="0.00" timeLoss="4.60" rerouteNo="0" devices="tripinfo_RB_L1I1" vType="Ego" speedFactor="0.90" vaporized=""/>
    <tripinfo id="RB_L1I2" depart="0.00" departLane="r2_1" departPos="428.00" departSpeed="0.00" departDelay="0.00" arrival="14.00" arrivalLane="r2_2" arrivalPos="469.00" arrivalSpeed="5.00" duration="14.00" routeLength="41.00" waitingTime="0.00" waitingCount="0" stopTime="0.00" timeLoss="5.80" rerouteNo="0" devices="tripinfo_RB_L1I2" vType="Ego" speedFactor="1.05" vaporized=""/>
    <tripinfo id="RB_L1I3" depart="0.00" departLane="r2_1" departPos="418.50" departSpeed="0.00" departDelay="0.00" arrival="16.00" arrivalLane="r2_2" arrivalPos="469.00" arrivalSpeed="5.00" duration="16.00" routeLength="50.50" waitingTime="0.00" waitingCount="0" stopTime="0.00" timeLoss="5.80" rerouteNo="0" devices="tripinfo_RB_L1I3" vType="Ego" speedFactor="1.13" vaporized=""/>
    <tripinfo id="RB_L2I2" depart="0.00" departLane="r2_2" departPos="409.00" departSpeed="0.00" departDelay="0.00" arrival="17.00" arrivalLane="r2_1" arrivalPos="469.00" arrivalSpeed="5.00" duration="17.00" routeLength="60.00" waitingTime="0.00" waitingCount="0" stopTime="0.00" timeLoss="4.40" rerouteNo="0" devices="tripinfo_RB_L2I2" vType="Ego" speedFactor="1.09" vaporized=""/>
    <tripinfo id="RB_L0I1" depart="0.00" departLane="r2_0" departPos="399.50" departSpeed="0.00" departDelay="0.00" arrival="20.00" arrivalLane="r2_1" arrivalPos="469.00" arrivalSpeed="5.00" duration="20.00" routeLength="69.50" waitingTime="0.00" waitingCount="0" stopTime="0.00" timeLoss="5.20" rerouteNo="0" devices="tripinfo_RB_L0I1" vType="Ego" speedFactor="1.00" vaporized=""/>
    <tripinfo id="RB_L1I4" depart="0.00" departLane="r2_1" departPos="390.00" departSpeed="0.00" departDelay="0.00" arrival="22.00" arrivalLane="r2_1" arrivalPos="469.00" arrivalSpeed="5.00" duration="22.00" routeLength="79.00" waitingTime="0.00" waitingCount="0" stopTime="0.00" timeLoss="5.40" rerouteNo="0" devices="tripinfo_RB_L1I4" vType="Ego" speedFactor="0.96" vaporized=""/>
    <tripinfo id="RB_L1I5" depart="0.00" departLane="r2_1" departPos="380.50" departSpeed="0.00" departDelay="0.00" arrival="22.00" arrivalLane="r2_0" arrivalPos="469.00" arrivalSpeed="5.00" duration="22.00" routeLength="88.50" waitingTime="0.00" waitingCount="0" stopTime="0.00" timeLoss="4.20" rerouteNo="0" devices="tripinfo_RB_L1I5" vType="Ego" speedFactor="1.11" vaporized=""/>
    <tripinfo id="RB_L2I3" depart="0.00" departLane="r2_2" departPos="371.00" departSpeed="0.00" departDelay="0.00" arrival="24.00" arrivalLane="r2_2" arrivalPos="469.00" arrivalSpeed="5.00" duration="24.00" routeLength="98.00" waitingTime="0.00" waitingCount="0" stopTime="0.00" timeLoss="3.80" rerouteNo="0" devices="tripinfo_RB_L2I3" vType="Ego" speedFactor="1.04" vaporized=""/>
    <tripinfo id="RB_L0I3" depart="0.00" departLane="r2_0" departPos="361.50" departSpeed="0.00" departDelay="0.00" arrival="25.00" arrivalLane="r2_1" arrivalPos="469.00" arrivalSpeed="4.00" duration="25.00" routeLength="107.50" waitingTime="0.00" waitingCount="0" stopTime="0.00" timeLoss="3.44" rerouteNo="0" devices="tripinfo_RB_L0I3" vType="Ego" speedFactor="1.12" vaporized=""/>
    <tripinfo id="RB_L0I2" depart="0.00" departLane="r2_0" departPos="371.00" departSpeed="0.00" departDelay="0.00" arrival="26.00" arrivalLane="r2_2" arrivalPos="469.00" arrivalSpeed="4.00" duration="26.00" routeLength="98.00" waitingTime="0.00" waitingCount="0" stopTime="0.00" timeLoss="5.78" rerouteNo="0" devices="tripinfo_RB_L0I2" vType="Ego" speedFactor="1.16" vaporized=""/>
    <tripinfo id="RB_L1I6" depart="0.00" departLane="r2_1" departPos="361.50" departSpeed="0.00" departDelay="0.00" arrival="27.00" arrivalLane="r2_1" arrivalPos="469.00" arrivalSpeed="5.00" duration="27.00" routeLength="107.50" waitingTime="0.00" waitingCount="0" stopTime="0.00" timeLoss="5.19" rerouteNo="0" devices="tripinfo_RB_L1I6" vType="Ego" speedFactor="1.01" vaporized=""/>
    <tripinfo id="RB_L1I7" depart="0.00" departLane="r2_1" departPos="352.00" departSpeed="0.00" departDelay="0.00" arrival="29.00" arrivalLane="r2_1" arrivalPos="469.00" arrivalSpeed="5.00" duration="29.00" routeLength="117.00" waitingTime="0.00" waitingCount="0" stopTime="0.00" timeLoss="5.00" rerouteNo="0" devices="tripinfo_RB_L1I7" vType="Ego" speedFactor="1.02" vaporized=""/>
    <tripinfo id="RB_L0I4" depart="0.00" departLane="r2_0" departPos="333.00" departSpeed="0.00" departDelay="0.00" arrival="31.00" arrivalLane="r2_1" arrivalPos="469.00" arrivalSpeed="5.00" duration="31.00" routeLength="136.00" waitingTime="0.00" waitingCount="0" stopTime="0.00" timeLoss="3.40" rerouteNo="0" devices="tripinfo_RB_L0I4" vType="Ego" speedFactor="1.28" vaporized=""/>
