<?xml version="1.0" encoding="UTF-8"?>

<!-- generated on 05/11/20 10:37:00 by Eclipse SUMO GUI Version v1_5_0+0742-a5dc31a60d
<configuration xmlns:xsi="http://www.w3.org/2001/XMLSchema-instance" xsi:noNamespaceSchemaLocation="http://sumo.dlr.de/xsd/sumoConfiguration.xsd">

    <input>
        <net-file value="D:\Career\GP\RLRep\Anarcho1.4\Sumo_files/Anarcho1.4.net.xml"/>
        <route-files value="D:\Career\GP\RLRep\Anarcho1.4\Sumo_files/Anarcho1.4.rou.xml"/>
    </input>

    <output>
        <tripinfo-output value="tripinfo.xml"/>
    </output>

    <time>
        <begin value="0"/>
        <end value="10000"/>
    </time>

    <random_number>
        <seed value="5"/>
    </random_number>

    <gui_only>
        <start value="true"/>
    </gui_only>

</configuration>
-->

<tripinfos xmlns:xsi="http://www.w3.org/2001/XMLSchema-instance" xsi:noNamespaceSchemaLocation="http://sumo.dlr.de/xsd/tripinfo_file.xsd">
    <tripinfo id="RB_L0I0" depart="0.00" departLane="r2_0" departPos="303.00" departSpeed="0.00" departDelay="0.00" arrival="7.00" arrivalLane="r2_0" arrivalPos="325.00" arrivalSpeed="5.00" duration="7.00" routeLength="22.00" waitingTime="0.00" waitingCount="0" stopTime="0.00" timeLoss="2.00" rerouteNo="0" devices="tripinfo_RB_L0I0" vType="Ego" speedFactor="0.88" vaporized=""/>
    <tripinfo id="RB_L1I0" depart="0.00" departLane="r2_1" departPos="303.00" departSpeed="0.00" departDelay="0.00" arrival="7.00" arrivalLane="r2_1" arrivalPos="325.00" arrivalSpeed="5.00" duration="7.00" routeLength="22.00" waitingTime="0.00" waitingCount="0" stopTime="0.00" timeLoss="2.00" rerouteNo="0" devices="tripinfo_RB_L1I0" vType="Ego" speedFactor="0.96" vaporized=""/>
    <tripinfo id="RB_L2I0" depart="0.00" departLane="r2_2" departPos="303.00" departSpeed="0.00" departDelay="0.00" arrival="7.00" arrivalLane="r2_2" arrivalPos="325.00" arrivalSpeed="5.00" duration="7.00" routeLength="22.00" waitingTime="0.00" waitingCount="0" stopTime="0.00" timeLoss="2.00" rerouteNo="0" devices="tripinfo_RB_L2I0" vType="Ego" speedFactor="1.11" vaporized=""/>
    <tripinfo id="RB_L1I1" depart="0.00" departLane="r2_1" departPos="293.50" departSpeed="0.00" departDelay="0.00" arrival="9.00" arrivalLane="r2_1" arrivalPos="325.00" arrivalSpeed="5.00" duration="9.00" routeLength="31.50" waitingTime="0.00" waitingCount="0" stopTime="0.00" timeLoss="2.24" rerouteNo="0" devices="tripinfo_RB_L1I1" vType="Ego" speedFactor="1.23" vaporized=""/>
    <tripinfo id="RB_L0I1" depart="0.00" departLane="r2_0" departPos="284.00" departSpeed="0.00" departDelay="0.00" arrival="11.00" arrivalLane="r2_0" arrivalPos="325.00" arrivalSpeed="5.00" duration="11.00" routeLength="41.00" waitingTime="0.00" waitingCount="0" stopTime="0.00" timeLoss="2.00" rerouteNo="0" devices="tripinfo_RB_L0I1" vType="Ego" speedFactor="1.00" vaporized=""/>
    <tripinfo id="RB_L1I2" depart="0.00" departLane="r2_1" departPos="284.00" departSpeed="0.00" departDelay="0.00" arrival="11.00" arrivalLane="r2_1" arrivalPos="325.00" arrivalSpeed="5.00" duration="11.00" routeLength="41.00" waitingTime="0.00" waitingCount="0" stopTime="0.00" timeLoss="2.42" rerouteNo="0" devices="tripinfo_RB_L1I2" vType="Ego" speedFactor="1.27" vaporized=""/>
    <tripinfo id="RB_L1I3" depart="0.00" departLane="r2_1" departPos="274.50" departSpeed="0.00" departDelay="0.00" arrival="13.00" arrivalLane="r2_1" arrivalPos="325.00" arrivalSpeed="5.00" duration="13.00" routeLength="50.50" waitingTime="0.00" waitingCount="0" stopTime="0.00" timeLoss="2.56" rerouteNo="0" devices="tripinfo_RB_L1I3" vType="Ego" speedFactor="1.07" vaporized=""/>
    <tripinfo id="RB_L2I1" depart="0.00" departLane="r2_2" departPos="274.50" departSpeed="0.00" departDelay="0.00" arrival="13.00" arrivalLane="r2_2" arrivalPos="325.00" arrivalSpeed="5.00" duration="13.00" routeLength="50.50" waitingTime="0.00" waitingCount="0" stopTime="0.00" timeLoss="2.00" rerouteNo="0" devices="tripinfo_RB_L2I1" vType="Ego" speedFactor="1.03" vaporized=""/>
    <tripinfo id="RB_L1I4" depart="0.00" departLane="r2_1" departPos="265.00" departSpeed="0.00" departDelay="0.00" arrival="15.00" arrivalLane="r2_1" arrivalPos="325.00" arrivalSpeed="5.00" duration="15.00" routeLength="60.00" waitingTime="0.00" waitingCount="0" stopTime="0.00" timeLoss="2.67" rerouteNo="0" devices="tripinfo_RB_L1I4" vType="Ego" speedFactor="0.97" vaporized=""/>
    <tripinfo id="RB_L2I2" depart="0.00" departLane="r2_2" departPos="265.00" departSpeed="0.00" departDelay="0.00" arrival="15.00" arrivalLane="r2_2" arrivalPos="325.00" arrivalSpeed="5.00" duration="15.00" routeLength="60.00" waitingTime="0.00" waitingCount="0" stopTime="0.00" timeLoss="2.24" rerouteNo="0" devices="tripinfo_RB_L2I2" vType="Ego" speedFactor="1.05" vaporized=""/>
    <tripinfo id="RB_L2I3" depart="0.00" departLane="r2_2" departPos="255.50" departSpeed="0.00" departDelay="0.00" arrival="17.00" arrivalLane="r2_2" arrivalPos="325.00" arrivalSpeed="5.00" duration="17.00" routeLength="69.50" waitingTime="0.00" waitingCount="0" stopTime="0.00" timeLoss="2.42" rerouteNo="0" devices="tripinfo_RB_L2I3" vType="Ego" speedFactor="0.90" vaporized=""/>
    <tripinfo id="RB_L0I2" depart="0.00" departLane="r2_0" departPos="246.00" departSpeed="0.00" departDelay="0.00" arrival="18.00" arrivalLane="r2_0" arrivalPos="325.00" arrivalSpeed="5.00" duration="18.00" routeLength="79.00" waitingTime="0.00" waitingCount="0" stopTime="0.00" timeLoss="2.00" rerouteNo="0" devices="tripinfo_RB_L0I2" vType="Ego" speedFactor="1.16" vaporized=""/>
    <tripinfo id="RB_L1I5" depart="0.00" departLane="r2_1" departPos="246.00" departSpeed="0.00" departDelay="0.00" arrival="18.00" arrivalLane="r2_1" arrivalPos="325.00" arrivalSpeed="5.00" duration="18.00" routeLength="79.00" waitingTime="0.00" waitingCount="0" stopTime="0.00" timeLoss="2.00" rerouteNo="0" devices="tripinfo_RB_L1I5" vType="Ego" speedFactor="0.95" vaporized=""/>
    <tripinfo id="RB_L2I4" depart="0.00" departLane="r2_2" departPos="246.00" departSpeed="0.00" departDelay="0.00" arrival="19.00" arrivalLane="r2_2" arrivalPos="325.00" arrivalSpeed="5.00" duration="19.00" routeLength="79.00" waitingTime="0.00" waitingCount="0" stopTime="0.00" timeLoss="2.56" rerouteNo="0" devices="tripinfo_RB_L2I4" vType="Ego" speedFactor="0.96" vaporized=""/>
    <tripinfo id="RB_L0I3" depart="0.00" departLane="r2_0" departPos="236.50" departSpeed="0.00" departDelay="0.00" arrival="20.00" arrivalLane="r2_0" arrivalPos="325.00" arrivalSpeed="5.00" duration="20.00" routeLength="88.50" waitingTime="0.00" waitingCount="0" stopTime="0.00" timeLoss="2.24" rerouteNo="0" devices="tripinfo_RB_L0I3" vType="Ego" speedFactor="1.12" vaporized=""/>
    <tripinfo id="RB_L1I6" depart="0.00" departLane="r2_1" departPos="236.50" departSpeed="0.00" departDelay="0.00" arrival="20.00" arrivalLane="r2_1" arrivalPos="325.00" arrivalSpeed="5.00" duration="20.00" routeLength="88.50" waitingTime="0.00" waitingCount="0" stopTime="0.00" timeLoss="2.24" rerouteNo="0" devices="tripinfo_RB_L1I6" vType="Ego" speedFactor="0.95" vaporized=""/>
    <tripinfo id="RB_L0I4" depart="0.00" departLane="r2_0" departPos="227.00" departSpeed="0.00" departDelay="0.00" arrival="23.00" arrivalLane="r2_0" arrivalPos="325.00" arrivalSpeed="5.00" duration="23.00" routeLength="98.00" waitingTime="0.00" waitingCount="0" stopTime="0.00" timeLoss="2.42" rerouteNo="0" devices="tripinfo_RB_L0I4" vType="Ego" speedFactor="1.28" vaporized=""/>
    <tripinfo id="RB_L1I7" depart="0.00" departLane="r2_1" departPos="227.00" departSpeed="0.00" departDelay="0.00" arrival="23.00" arrivalLane="r2_1" arrivalPos="325.00" arrivalSpeed="5.00" duration="23.00" routeLength="98.00" waitingTime="0.00" waitingCount="0" stopTime="0.00" timeLoss="2.42" rerouteNo="0" devices="tripinfo_RB_L1I7" vType="Ego" speedFactor="1.05" vaporized=""/>
    <tripinfo id="RB_L0I5" depart="0.00" departLane="r2_0" departPos="217.50" departSpeed="0.00" departDelay="0.00" arrival="25.00" arrivalLane="r2_0" arrivalPos="325.00" arrivalSpeed="5.00" duration="25.00" routeLength="107.50" waitingTime="0.00" waitingCount="0" stopTime="0.00" timeLoss="2.56" rerouteNo="0" devices="tripinfo_RB_L0I5" vType="Ego" speedFactor="0.95" vaporized=""/>
    <tripinfo id="RB_L1I8" depart="0.00" departLane="r2_1" departPos="208.00" departSpeed="0.00" departDelay="0.00" arrival="26.00" arrivalLane="r2_1" arrivalPos="325.00" arrivalSpeed="5.00" duration="26.00" routeLength="117.00" waitingTime="0.00" waitingCount="0" stopTime="0.00" timeLoss="2.00" rerouteNo="0" devices="tripinfo_RB_L1I8" vType="Ego" speedFactor="0.96" vaporized=""/>
    <tripinfo id="RB_L1I9" depart="0.00" departLane="r2_1" departPos="198.50" departSpeed="0.00" departDelay="0.00" arrival="28.00" arrivalLane="r2_1" arrivalPos="325.00" arrivalSpeed="5.00" duration="28.00" routeLength="126.50" waitingTime="0.00" waitingCount="0" stopTime="0.00" timeLoss="2.24" rerouteNo="0" devices="tripinfo_RB_L1I9" vType="Ego" speedFactor="0.90" vaporized=""/>
    <tripinfo id="RB_L1I10" depart="0.00" departLane="r2_1" departPos="189.00" departSpeed="0.00" departDelay="0.00" arrival="30.00" arrivalLane="r2_1" arrivalPos="325.00" arrivalSpeed="5.00" duration="30.00" routeLength="136.00" waitingTime="0.00" waitingCount="0" stopTime="0.00" timeLoss="2.42" rerouteNo="0" devices="tripinfo_RB_L1I10" vType="Ego" speedFactor="1.05" vaporized=""/>
    <tripinfo id="RB_L2I5" depart="0.00" departLane="r2_2" departPos="189.00" departSpeed="0.00" departDelay="0.00" arrival="30.00" arrivalLane="r2_2" arrivalPos="325.00" arrivalSpeed="5.00" duration="30.00" routeLength="136.00" waitingTime="0.00" waitingCount="0" stopTime="0.00" timeLoss="2.00" rerouteNo="0" devices="tripinfo_RB_L2I5" vType="Ego" speedFactor="1.11" vaporized=""/>
    <tripinfo id="RB_L0I6" depart="0.00" departLane="r2_0" departPos="179.50" departSpeed="0.00" departDelay="0.00" arrival="32.00" arrivalLane="r2_0" arrivalPos="325.00" arrivalSpeed="5.00" duration="32.00" routeLength="145.50" waitingTime="0.00" waitingCount="0" stopTime="0.00" timeLoss="2.00" rerouteNo="0" devices="tripinfo_RB_L0I6" vType="Ego" speedFactor="0.94" vaporized=""/>
    <tripinfo id="RB_L2I6" depart="0.00" departLane="r2_2" departPos="170.00" departSpeed="0.00" departDelay="0.00" arrival="33.00" arrivalLane="r2_2" arrivalPos="325.00" arrivalSpeed="5.00" duration="33.00" routeLength="155.00" waitingTime="0.00" waitingCount="0" stopTime="0.00" timeLoss="2.00" rerouteNo="0" devices="tripinfo_RB_L2I6" vType="Ego" speedFactor="1.09" vaporized=""/>
    <tripinfo id="RB_L0I7" depart="0.00" departLane="r2_0" departPos="160.50" departSpeed="0.00" departDelay="0.00" arrival="35.00" arrivalLane="r2_0" arrivalPos="325.00" arrivalSpeed="5.00" duration="35.00" routeLength="164.50" waitingTime="0.00" waitingCount="0" stopTime="0.00" timeLoss="2.00" rerouteNo="0" devices="tripinfo_RB_L0I7" vType="Ego" speedFactor="1.06" vaporized=""/>
    <tripinfo id="RB_L2I7" depart="0.00" departLane="r2_2" departPos="160.50" departSpeed="0.00" departDelay="0.00" arrival="36.00" arrivalLane="r2_2" arrivalPos="325.00" arrivalSpeed="5.00" duration="36.00" routeLength="164.50" waitingTime="0.00" waitingCount="0" stopTime="0.00" timeLoss="2.24" rerouteNo="0" devices="tripinfo_RB_L2I7" vType="Ego" speedFactor="1.06" vaporized=""/>
    <tripinfo id="RB_L2I8" depart="0.00" departLane="r2_2" departPos="151.00" departSpeed="0.00" departDelay="0.00" arrival="38.00" arrivalLane="r2_2" arrivalPos="325.00" arrivalSpeed="5.00" duration="38.00" routeLength="174.00" waitingTime="0.00" waitingCount="0" stopTime="0.00" timeLoss="2.42" rerouteNo="0" devices="tripinfo_RB_L2I8" vType="Ego" speedFactor="1.00" vaporized=""/>
    <tripinfo id="RB_L0I8" depart="0.00" departLane="r2_0" departPos="141.50" departSpeed="0.00" departDelay="0.00" arrival="39.00" arrivalLane="r2_0" arrivalPos="325.00" arrivalSpeed="5.00" duration="39.00" routeLength="183.50" waitingTime="0.00" waitingCount="0" stopTime="0.00" timeLoss="2.00" rerouteNo="0" devices="tripinfo_RB_L0I8" vType="Ego" speedFactor="0.96" vaporized=""/>
    <tripinfo id="RB_L1I11" depart="0.00" departLane="r2_1" departPos="141.50" departSpeed="0.00" departDelay="0.00" arrival="39.00" arrivalLane="r2_1" arrivalPos="325.00" arrivalSpeed="5.00" duration="39.00" routeLength="183.50" waitingTime="0.00" waitingCount="0" stopTime="0.00" timeLoss="2.00" rerouteNo="0" devices="tripinfo_RB_L1I11" vType="Ego" speedFactor="1.13" vaporized=""/>
    <tripinfo id="RB_L2I9" depart="0.00" departLane="r2_2" departPos="141.50" departSpeed="0.00" departDelay="0.00" arrival="40.00" arrivalLane="r2_2" arrivalPos="325.00" arrivalSpeed="5.00" duration="40.00" routeLength="183.50" waitingTime="0.00" waitingCount="0" stopTime="0.00" timeLoss="2.56" rerouteNo="0" devices="tripinfo_RB_L2I9" vType="Ego" speedFactor="0.94" vaporized=""/>
    <tripinfo id="RB_L0I9" depart="0.00" departLane="r2_0" departPos="132.00" departSpeed="0.00" departDelay="0.00" arrival="41.00" arrivalLane="r2_0" arrivalPos="325.00" arrivalSpeed="5.00" duration="41.00" routeLength="193.00" waitingTime="0.00" waitingCount="0" stopTime="0.00" timeLoss="2.24" rerouteNo="0" devices="tripinfo_RB_L0I9" vType="Ego" speedFactor="0.94" vaporized=""/>
    <tripinfo id="RB_L1I12" depart="0.00" departLane="r2_1" departPos="113.00" departSpeed="0.00" departDelay="0.00" arrival="45.00" arrivalLane="r2_1" arrivalPos="325.00" arrivalSpeed="5.00" duration="45.00" routeLength="212.00" waitingTime="0.00" waitingCount="0" stopTime="0.00" timeLoss="2.00" rerouteNo="0" devices="tripinfo_RB_L1I12" vType="Ego" speedFactor="0.96" vaporized=""/>
    <tripinfo id="RB_L1I13" depart="0.00" departLane="r2_1" departPos="103.50" departSpeed="0.00" departDelay="0.00" arrival="47.00" arrivalLane="r2_1" arrivalPos="325.00" arrivalSpeed="5.00" duration="47.00" routeLength="221.50" waitingTime="0.00" waitingCount="0" stopTime="0.00" timeLoss="2.24" rerouteNo="0" devices="tripinfo_RB_L1I13" vType="Ego" speedFactor="1.11" vaporized=""/>
    <tripinfo id="RB_L1I14" depart="0.00" departLane="r2_1" departPos="84.50" departSpeed="0.00" departDelay="0.00" arrival="51.00" arrivalLane="r2_1" arrivalPos="325.00" arrivalSpeed="5.00" duration="51.00" routeLength="240.50" waitingTime="0.00" waitingCount="0" stopTime="0.00" timeLoss="2.00" rerouteNo="0" devices="tripinfo_RB_L1I14" vType="Ego" speedFactor="1.01" vaporized=""/>
    <tripinfo id="RB_L2I10" depart="0.00" departLane="r2_2" departPos="75.00" departSpeed="0.00" departDelay="0.00" arrival="52.00" arrivalLane="r2_2" arrivalPos="325.00" arrivalSpeed="5.00" duration="52.00" routeLength="250.00" waitingTime="0.00" waitingCount="0" stopTime="0.00" timeLoss="2.00" rerouteNo="0" devices="tripinfo_RB_L2I10" vType="Ego" speedFactor="0.90" vaporized=""/>
    <tripinfo id="RB_L0I10" depart="0.00" departLane="r2_0" departPos="56.00" departSpeed="0.00" departDelay="0.00" arrival="56.00" arrivalLane="r2_0" arrivalPos="325.00" arrivalSpeed="5.00" duration="56.00" routeLength="269.00" waitingTime="0.00" waitingCount="0" stopTime="0.00" timeLoss="2.00" rerouteNo="0" devices="tripinfo_RB_L0I10" vType="Ego" speedFactor="0.93" vaporized=""/>
</tripinfos>
