<?xml version="1.0" encoding="UTF-8"?>

<!-- generated on Wed Feb 19 17:53:49 2020 by Eclipse SUMO GUI Version 1.4.0
<configuration xmlns:xsi="http://www.w3.org/2001/XMLSchema-instance" xsi:noNamespaceSchemaLocation="http://sumo.dlr.de/xsd/sumoConfiguration.xsd">

    <input>
        <net-file value="Anarcho1.2.net.xml"/>
        <route-files value="Anarcho1.2.rou.xml"/>
    </input>

    <output>
        <tripinfo-output value="tripinfo.xml"/>
    </output>

    <time>
        <begin value="0"/>
        <end value="10000"/>
    </time>

    <traci_server>
        <remote-port value="52725"/>
    </traci_server>

</configuration>
-->

<tripinfos xmlns:xsi="http://www.w3.org/2001/XMLSchema-instance" xsi:noNamespaceSchemaLocation="http://sumo.dlr.de/xsd/tripinfo_file.xsd">
    <tripinfo id="RB" depart="0.00" departLane="r2_0" departPos="2.10" departSpeed="0.00" departDelay="0.00" arrival="81.00" arrivalLane="r2_0" arrivalPos="400.00" arrivalSpeed="5.00" duration="81.00" routeLength="397.90" waitingTime="0.00" waitingCount="0" stopTime="0.00" timeLoss="0.48" rerouteNo="0" devices="tripinfo_RB" vType="Ego" speedFactor="1.06" vaporized=""/>
</tripinfos>
