<?xml version="1.0" encoding="UTF-8"?>

<!-- generated on 09/28/20 02:36:55 by Eclipse SUMO GUI Version v1_5_0+0833-59242a742f
<configuration xmlns:xsi="http://www.w3.org/2001/XMLSchema-instance" xsi:noNamespaceSchemaLocation="http://sumo.dlr.de/xsd/sumoConfiguration.xsd">

    <input>
        <net-file value="F:\Anarcho_AV&#45;&#45;-Multi-agent-RL-for-AV-traffic-clearance-master\Anarcho1.42\Sumo_files/Anarcho1.4.net.xml"/>
        <route-files value="F:\Anarcho_AV&#45;&#45;-Multi-agent-RL-for-AV-traffic-clearance-master\Anarcho1.42\Sumo_files/Anarcho1.4.rou.xml"/>
    </input>

    <output>
        <tripinfo-output value="tripinfo.xml"/>
    </output>

    <time>
        <begin value="0"/>
        <end value="10000"/>
    </time>

    <random_number>
        <seed value="5"/>
    </random_number>

    <gui_only>
        <start value="true"/>
    </gui_only>

</configuration>
-->

<tripinfos xmlns:xsi="http://www.w3.org/2001/XMLSchema-instance" xsi:noNamespaceSchemaLocation="http://sumo.dlr.de/xsd/tripinfo_file.xsd">
</tripinfos>
