<?xml version="1.0" encoding="UTF-8"?>

<!-- generated on 09/29/20 21:36:44 by Eclipse SUMO Version v1_5_0+0742-a5dc31a60d
<configuration xmlns:xsi="http://www.w3.org/2001/XMLSchema-instance" xsi:noNamespaceSchemaLocation="http://sumo.dlr.de/xsd/sumoConfiguration.xsd">

    <input>
        <net-file value="D:\Career\GP\RLRep\Anarcho1.5\Sumo_files/Anarcho1.4.net.xml"/>
        <route-files value="D:\Career\GP\RLRep\Anarcho1.5\Sumo_files/Anarcho1.4.rou.xml"/>
    </input>

    <output>
        <tripinfo-output value="tripinfo.xml"/>
    </output>

    <time>
        <begin value="0"/>
        <end value="10000"/>
    </time>

    <traci_server>
        <remote-port value="63247"/>
    </traci_server>

    <random_number>
        <seed value="5"/>
    </random_number>

    <gui_only>
        <quit-on-end value="true"/>
        <start value="true"/>
    </gui_only>

</configuration>
-->

<tripinfos xmlns:xsi="http://www.w3.org/2001/XMLSchema-instance" xsi:noNamespaceSchemaLocation="http://sumo.dlr.de/xsd/tripinfo_file.xsd">
    <tripinfo id="RB_L0I0" depart="0.00" departLane="r2_0" departPos="334.50" departSpeed="0.00" departDelay="0.00" arrival="9.00" arrivalLane="r2_0" arrivalPos="366.00" arrivalSpeed="5.00" duration="9.00" routeLength="31.50" waitingTime="0.00" waitingCount="0" stopTime="0.00" timeLoss="2.00" rerouteNo="0" devices="tripinfo_RB_L0I0" vType="Ego" speedFactor="0.88" vaporized=""/>
    <tripinfo id="RB_L1I0" depart="0.00" departLane="r2_1" departPos="334.50" departSpeed="0.00" departDelay="0.00" arrival="9.00" arrivalLane="r2_1" arrivalPos="366.00" arrivalSpeed="5.00" duration="9.00" routeLength="31.50" waitingTime="0.00" waitingCount="0" stopTime="0.00" timeLoss="2.00" rerouteNo="0" devices="tripinfo_RB_L1I0" vType="Ego" speedFactor="1.11" vaporized=""/>
    <tripinfo id="RB_L0I1" depart="0.00" departLane="r2_0" departPos="325.00" departSpeed="0.00" departDelay="0.00" arrival="11.00" arrivalLane="r2_0" arrivalPos="366.00" arrivalSpeed="5.00" duration="11.00" routeLength="41.00" waitingTime="0.00" waitingCount="0" stopTime="0.00" timeLoss="2.40" rerouteNo="0" devices="tripinfo_RB_L0I1" vType="Ego" speedFactor="1.00" vaporized=""/>
    <tripinfo id="RB_L1I1" depart="0.00" departLane="r2_1" departPos="325.00" departSpeed="0.00" departDelay="0.00" arrival="11.00" arrivalLane="r2_1" arrivalPos="366.00" arrivalSpeed="5.00" duration="11.00" routeLength="41.00" waitingTime="0.00" waitingCount="0" stopTime="0.00" timeLoss="2.40" rerouteNo="0" devices="tripinfo_RB_L1I1" vType="Ego" speedFactor="1.03" vaporized=""/>
    <tripinfo id="RB_L2I0" depart="0.00" departLane="r2_2" departPos="325.00" departSpeed="0.00" departDelay="0.00" arrival="11.00" arrivalLane="r2_2" arrivalPos="366.00" arrivalSpeed="4.00" duration="11.00" routeLength="41.00" waitingTime="0.00" waitingCount="0" stopTime="0.00" timeLoss="2.80" rerouteNo="0" devices="tripinfo_RB_L2I0" vType="Ego" speedFactor="1.00" vaporized=""/>
    <tripinfo id="RB_L0I2" depart="0.00" departLane="r2_0" departPos="315.50" departSpeed="0.00" departDelay="0.00" arrival="13.00" arrivalLane="r2_0" arrivalPos="366.00" arrivalSpeed="5.00" duration="13.00" routeLength="50.50" waitingTime="0.00" waitingCount="0" stopTime="0.00" timeLoss="2.70" rerouteNo="0" devices="tripinfo_RB_L0I2" vType="Ego" speedFactor="1.16" vaporized=""/>
    <tripinfo id="RB_L1I2" depart="0.00" departLane="r2_1" departPos="315.50" departSpeed="0.00" departDelay="0.00" arrival="13.00" arrivalLane="r2_1" arrivalPos="366.00" arrivalSpeed="5.00" duration="13.00" routeLength="50.50" waitingTime="0.00" waitingCount="0" stopTime="0.00" timeLoss="2.70" rerouteNo="0" devices="tripinfo_RB_L1I2" vType="Ego" speedFactor="1.05" vaporized=""/>
    <tripinfo id="RB_L1I3" depart="0.00" departLane="r2_1" departPos="306.00" departSpeed="0.00" departDelay="0.00" arrival="15.00" arrivalLane="r2_1" arrivalPos="366.00" arrivalSpeed="5.00" duration="15.00" routeLength="60.00" waitingTime="0.00" waitingCount="0" stopTime="0.00" timeLoss="2.93" rerouteNo="0" devices="tripinfo_RB_L1I3" vType="Ego" speedFactor="0.90" vaporized=""/>
    <tripinfo id="RB_L2I1" depart="0.00" departLane="r2_2" departPos="315.50" departSpeed="0.00" departDelay="0.00" arrival="15.00" arrivalLane="r2_2" arrivalPos="366.00" arrivalSpeed="3.00" duration="15.00" routeLength="50.50" waitingTime="0.00" waitingCount="0" stopTime="0.00" timeLoss="4.76" rerouteNo="0" devices="tripinfo_RB_L2I1" vType="Ego" speedFactor="1.02" vaporized=""/>
    <tripinfo id="RB_L0I3" depart="0.00" departLane="r2_0" departPos="296.50" departSpeed="0.00" departDelay="0.00" arrival="16.00" arrivalLane="r2_0" arrivalPos="366.00" arrivalSpeed="5.00" duration="16.00" routeLength="69.50" waitingTime="0.00" waitingCount="0" stopTime="0.00" timeLoss="2.00" rerouteNo="0" devices="tripinfo_RB_L0I3" vType="Ego" speedFactor="1.12" vaporized=""/>
    <tripinfo id="RB_L1I4" depart="0.00" departLane="r2_1" departPos="296.50" departSpeed="0.00" departDelay="0.00" arrival="17.00" arrivalLane="r2_1" arrivalPos="366.00" arrivalSpeed="5.00" duration="17.00" routeLength="69.50" waitingTime="0.00" waitingCount="0" stopTime="0.00" timeLoss="3.09" rerouteNo="0" devices="tripinfo_RB_L1I4" vType="Ego" speedFactor="0.96" vaporized=""/>
    <tripinfo id="RB_L0I4" depart="0.00" departLane="r2_0" departPos="277.50" departSpeed="0.00" departDelay="0.00" arrival="20.00" arrivalLane="r2_0" arrivalPos="366.00" arrivalSpeed="5.00" duration="20.00" routeLength="88.50" waitingTime="0.00" waitingCount="0" stopTime="0.00" timeLoss="2.00" rerouteNo="0" devices="tripinfo_RB_L0I4" vType="Ego" speedFactor="1.28" vaporized=""/>
    <tripinfo id="RB_L1I5" depart="0.00" departLane="r2_1" departPos="277.50" departSpeed="0.00" departDelay="0.00" arrival="20.00" arrivalLane="r2_1" arrivalPos="366.00" arrivalSpeed="5.00" duration="20.00" routeLength="88.50" waitingTime="0.00" waitingCount="0" stopTime="0.00" timeLoss="2.00" rerouteNo="0" devices="tripinfo_RB_L1I5" vType="Ego" speedFactor="1.11" vaporized=""/>
    <tripinfo id="RB_L2I2" depart="0.00" departLane="r2_2" departPos="287.00" departSpeed="0.00" departDelay="0.00" arrival="20.00" arrivalLane="r2_2" arrivalPos="366.00" arrivalSpeed="4.00" duration="20.00" routeLength="79.00" waitingTime="0.00" waitingCount="0" stopTime="0.00" timeLoss="3.60" rerouteNo="0" devices="tripinfo_RB_L2I2" vType="Ego" speedFactor="0.99" vaporized=""/>
    <tripinfo id="RB_L0I5" depart="0.00" departLane="r2_0" departPos="268.00" departSpeed="0.00" departDelay="0.00" arrival="22.00" arrivalLane="r2_0" arrivalPos="366.00" arrivalSpeed="5.00" duration="22.00" routeLength="98.00" waitingTime="0.00" waitingCount="0" stopTime="0.00" timeLoss="2.40" rerouteNo="0" devices="tripinfo_RB_L0I5" vType="Ego" speedFactor="0.95" vaporized=""/>
    <tripinfo id="RB_L1I6" depart="0.00" departLane="r2_1" departPos="268.00" departSpeed="0.00" departDelay="0.00" arrival="22.00" arrivalLane="r2_1" arrivalPos="366.00" arrivalSpeed="5.00" duration="22.00" routeLength="98.00" waitingTime="0.00" waitingCount="0" stopTime="0.00" timeLoss="2.40" rerouteNo="0" devices="tripinfo_RB_L1I6" vType="Ego" speedFactor="1.09" vaporized=""/>
    <tripinfo id="RB_L2I3" depart="0.00" departLane="r2_2" departPos="277.50" departSpeed="0.00" departDelay="0.00" arrival="24.00" arrivalLane="r2_2" arrivalPos="366.00" arrivalSpeed="5.00" duration="24.00" routeLength="88.50" waitingTime="0.00" waitingCount="0" stopTime="0.00" timeLoss="5.36" rerouteNo="0" devices="tripinfo_RB_L2I3" vType="Ego" speedFactor="0.87" vaporized=""/>
    <tripinfo id="RB_L0I6" depart="0.00" departLane="r2_0" departPos="258.50" departSpeed="0.00" departDelay="0.00" arrival="25.00" arrivalLane="r2_0" arrivalPos="366.00" arrivalSpeed="5.00" duration="25.00" routeLength="107.50" waitingTime="0.00" waitingCount="0" stopTime="0.00" timeLoss="2.70" rerouteNo="0" devices="tripinfo_RB_L0I6" vType="Ego" speedFactor="0.94" vaporized=""/>
    <tripinfo id="RB_L1I7" depart="0.00" departLane="r2_1" departPos="258.50" departSpeed="0.00" departDelay="0.00" arrival="25.00" arrivalLane="r2_1" arrivalPos="366.00" arrivalSpeed="5.00" duration="25.00" routeLength="107.50" waitingTime="0.00" waitingCount="0" stopTime="0.00" timeLoss="2.70" rerouteNo="0" devices="tripinfo_RB_L1I7" vType="Ego" speedFactor="1.06" vaporized=""/>
    <tripinfo id="RB_L2I4" depart="0.00" departLane="r2_2" departPos="268.00" departSpeed="0.00" departDelay="0.00" arrival="26.00" arrivalLane="r2_2" arrivalPos="366.00" arrivalSpeed="5.00" duration="26.00" routeLength="98.00" waitingTime="0.00" waitingCount="0" stopTime="0.00" timeLoss="6.00" rerouteNo="0" devices="tripinfo_RB_L2I4" vType="Ego" speedFactor="0.91" vaporized=""/>
    <tripinfo id="RB_L0I7" depart="0.00" departLane="r2_0" departPos="249.00" departSpeed="0.00" departDelay="0.00" arrival="27.00" arrivalLane="r2_1" arrivalPos="366.00" arrivalSpeed="5.00" duration="27.00" routeLength="117.00" waitingTime="0.00" waitingCount="0" stopTime="0.00" timeLoss="2.93" rerouteNo="0" devices="tripinfo_RB_L0I7" vType="Ego" speedFactor="1.06" vaporized=""/>
    <tripinfo id="RB_L0I8" depart="0.00" departLane="r2_0" departPos="239.50" departSpeed="0.00" departDelay="0.00" arrival="29.00" arrivalLane="r2_0" arrivalPos="366.00" arrivalSpeed="5.00" duration="29.00" routeLength="126.50" waitingTime="0.00" waitingCount="0" stopTime="0.00" timeLoss="3.09" rerouteNo="0" devices="tripinfo_RB_L0I8" vType="Ego" speedFactor="0.96" vaporized=""/>
    <tripinfo id="RB_L2I5" depart="0.00" departLane="r2_2" departPos="249.00" departSpeed="0.00" departDelay="0.00" arrival="29.00" arrivalLane="r2_2" arrivalPos="366.00" arrivalSpeed="5.00" duration="29.00" routeLength="117.00" waitingTime="0.00" waitingCount="0" stopTime="0.00" timeLoss="4.87" rerouteNo="0" devices="tripinfo_RB_L2I5" vType="Ego" speedFactor="0.93" vaporized=""/>
    <tripinfo id="RB_L1I8" depart="0.00" departLane="r2_1" departPos="230.00" departSpeed="0.00" departDelay="0.00" arrival="30.00" arrivalLane="r2_1" arrivalPos="366.00" arrivalSpeed="5.00" duration="30.00" routeLength="136.00" waitingTime="0.00" waitingCount="0" stopTime="0.00" timeLoss="2.00" rerouteNo="0" devices="tripinfo_RB_L1I8" vType="Ego" speedFactor="1.00" vaporized=""/>
    <tripinfo id="RB_L2I6" depart="0.00" departLane="r2_2" departPos="239.50" departSpeed="0.00" departDelay="0.00" arrival="31.00" arrivalLane="r2_2" arrivalPos="366.00" arrivalSpeed="5.00" duration="31.00" routeLength="126.50" waitingTime="0.00" waitingCount="0" stopTime="0.00" timeLoss="5.61" rerouteNo="0" devices="tripinfo_RB_L2I6" vType="Ego" speedFactor="1.02" vaporized=""/>
    <tripinfo id="RB_L0I9" depart="0.00" departLane="r2_0" departPos="220.50" departSpeed="0.00" departDelay="0.00" arrival="32.00" arrivalLane="r2_1" arrivalPos="366.00" arrivalSpeed="5.00" duration="32.00" routeLength="145.50" waitingTime="0.00" waitingCount="0" stopTime="0.00" timeLoss="2.00" rerouteNo="0" devices="tripinfo_RB_L0I9" vType="Ego" speedFactor="0.94" vaporized=""/>
    <tripinfo id="RB_L0I10" depart="0.00" departLane="r2_0" departPos="211.00" departSpeed="0.00" departDelay="0.00" arrival="34.00" arrivalLane="r2_0" arrivalPos="366.00" arrivalSpeed="5.00" duration="34.00" routeLength="155.00" waitingTime="0.00" waitingCount="0" stopTime="0.00" timeLoss="2.40" rerouteNo="0" devices="tripinfo_RB_L0I10" vType="Ego" speedFactor="0.93" vaporized=""/>
    <tripinfo id="RB_L1I9" depart="0.00" departLane="r2_1" departPos="211.00" departSpeed="0.00" departDelay="0.00" arrival="34.00" arrivalLane="r2_2" arrivalPos="366.00" arrivalSpeed="5.00" duration="34.00" routeLength="155.00" waitingTime="0.00" waitingCount="0" stopTime="0.00" timeLoss="2.20" rerouteNo="0" devices="tripinfo_RB_L1I9" vType="Ego" speedFactor="0.94" vaporized=""/>
    <tripinfo id="RB_L0I11" depart="0.00" departLane="r2_0" departPos="201.50" departSpeed="0.00" departDelay="0.00" arrival="36.00" arrivalLane="r2_0" arrivalPos="366.00" arrivalSpeed="5.00" duration="36.00" routeLength="164.50" waitingTime="0.00" waitingCount="0" stopTime="0.00" timeLoss="2.70" rerouteNo="0" devices="tripinfo_RB_L0I11" vType="Ego" speedFactor="0.98" vaporized=""/>
    <tripinfo id="RB_L1I10" depart="0.00" departLane="r2_1" departPos="201.50" departSpeed="0.00" departDelay="0.00" arrival="36.00" arrivalLane="r2_1" arrivalPos="366.00" arrivalSpeed="5.00" duration="36.00" routeLength="164.50" waitingTime="0.00" waitingCount="0" stopTime="0.00" timeLoss="2.40" rerouteNo="0" devices="tripinfo_RB_L1I10" vType="Ego" speedFactor="0.90" vaporized=""/>
    <tripinfo id="RB_L2I7" depart="0.00" departLane="r2_2" departPos="220.50" departSpeed="0.00" departDelay="0.00" arrival="36.00" arrivalLane="r2_2" arrivalPos="366.00" arrivalSpeed="5.00" duration="36.00" routeLength="145.50" waitingTime="0.00" waitingCount="0" stopTime="0.00" timeLoss="6.84" rerouteNo="0" devices="tripinfo_RB_L2I7" vType="Ego" speedFactor="0.96" vaporized=""/>
    <tripinfo id="RB_L0I12" depart="0.00" departLane="r2_0" departPos="192.00" departSpeed="0.00" departDelay="0.00" arrival="38.00" arrivalLane="r2_0" arrivalPos="366.00" arrivalSpeed="5.00" duration="38.00" routeLength="174.00" waitingTime="0.00" waitingCount="0" stopTime="0.00" timeLoss="2.93" rerouteNo="0" devices="tripinfo_RB_L0I12" vType="Ego" speedFactor="0.96" vaporized=""/>
    <tripinfo id="RB_L1I11" depart="0.00" departLane="r2_1" departPos="192.00" departSpeed="0.00" departDelay="0.00" arrival="38.00" arrivalLane="r2_1" arrivalPos="366.00" arrivalSpeed="5.00" duration="38.00" routeLength="174.00" waitingTime="0.00" waitingCount="0" stopTime="0.00" timeLoss="2.70" rerouteNo="0" devices="tripinfo_RB_L1I11" vType="Ego" speedFactor="1.06" vaporized=""/>
    <tripinfo id="RB_L2I8" depart="0.00" departLane="r2_2" departPos="211.00" departSpeed="0.00" departDelay="0.00" arrival="38.00" arrivalLane="r2_2" arrivalPos="366.00" arrivalSpeed="5.00" duration="38.00" routeLength="155.00" waitingTime="0.00" waitingCount="0" stopTime="0.00" timeLoss="6.89" rerouteNo="0" devices="tripinfo_RB_L2I8" vType="Ego" speedFactor="0.92" vaporized=""/>
    <tripinfo id="RB_L0I13" depart="0.00" departLane="r2_0" departPos="182.50" departSpeed="0.00" departDelay="0.00" arrival="40.00" arrivalLane="r2_0" arrivalPos="366.00" arrivalSpeed="5.00" duration="40.00" routeLength="183.50" waitingTime="0.00" waitingCount="0" stopTime="0.00" timeLoss="3.09" rerouteNo="0" devices="tripinfo_RB_L0I13" vType="Ego" speedFactor="1.23" vaporized=""/>
    <tripinfo id="RB_L1I12" depart="0.00" departLane="r2_1" departPos="182.50" departSpeed="0.00" departDelay="0.00" arrival="40.00" arrivalLane="r2_1" arrivalPos="366.00" arrivalSpeed="5.00" duration="40.00" routeLength="183.50" waitingTime="0.00" waitingCount="0" stopTime="0.00" timeLoss="2.93" rerouteNo="0" devices="tripinfo_RB_L1I12" vType="Ego" speedFactor="1.11" vaporized=""/>
    <tripinfo id="RB_L2I9" depart="0.00" departLane="r2_2" departPos="201.50" departSpeed="0.00" departDelay="0.00" arrival="41.00" arrivalLane="r2_2" arrivalPos="366.00" arrivalSpeed="5.00" duration="41.00" routeLength="164.50" waitingTime="0.00" waitingCount="0" stopTime="0.00" timeLoss="7.72" rerouteNo="0" devices="tripinfo_RB_L2I9" vType="Ego" speedFactor="0.98" vaporized=""/>
    <tripinfo id="RB_L0I14" depart="0.00" departLane="r2_0" departPos="163.50" departSpeed="0.00" departDelay="0.00" arrival="43.00" arrivalLane="r2_0" arrivalPos="366.00" arrivalSpeed="5.00" duration="43.00" routeLength="202.50" waitingTime="0.00" waitingCount="0" stopTime="0.00" timeLoss="2.00" rerouteNo="0" devices="tripinfo_RB_L0I14" vType="Ego" speedFactor="1.27" vaporized=""/>
    <tripinfo id="RB_L1I13" depart="0.00" departLane="r2_1" departPos="163.50" departSpeed="0.00" departDelay="0.00" arrival="43.00" arrivalLane="r2_1" arrivalPos="366.00" arrivalSpeed="5.00" duration="43.00" routeLength="202.50" waitingTime="0.00" waitingCount="0" stopTime="0.00" timeLoss="2.00" rerouteNo="0" devices="tripinfo_RB_L1I13" vType="Ego" speedFactor="1.15" vaporized=""/>
    <tripinfo id="RB_L2I10" depart="0.00" departLane="r2_2" departPos="182.50" departSpeed="0.00" departDelay="0.00" arrival="43.00" arrivalLane="r2_2" arrivalPos="366.00" arrivalSpeed="5.00" duration="43.00" routeLength="183.50" waitingTime="0.00" waitingCount="0" stopTime="0.00" timeLoss="6.17" rerouteNo="0" devices="tripinfo_RB_L2I10" vType="Ego" speedFactor="1.05" vaporized=""/>
    <tripinfo id="RB_L0I15" depart="0.00" departLane="r2_0" departPos="154.00" departSpeed="0.00" departDelay="0.00" arrival="45.00" arrivalLane="r2_0" arrivalPos="366.00" arrivalSpeed="5.00" duration="45.00" routeLength="212.00" waitingTime="0.00" waitingCount="0" stopTime="0.00" timeLoss="2.40" rerouteNo="0" devices="tripinfo_RB_L0I15" vType="Ego" speedFactor="1.07" vaporized=""/>
    <tripinfo id="RB_L1I14" depart="0.00" departLane="r2_1" departPos="154.00" departSpeed="0.00" departDelay="0.00" arrival="45.00" arrivalLane="r2_1" arrivalPos="366.00" arrivalSpeed="5.00" duration="45.00" routeLength="212.00" waitingTime="0.00" waitingCount="0" stopTime="0.00" timeLoss="2.40" rerouteNo="0" devices="tripinfo_RB_L1I14" vType="Ego" speedFactor="1.09" vaporized=""/>
    <tripinfo id="RB_L2I11" depart="0.00" departLane="r2_2" departPos="173.00" departSpeed="0.00" departDelay="0.00" arrival="45.00" arrivalLane="r2_2" arrivalPos="366.00" arrivalSpeed="5.00" duration="45.00" routeLength="193.00" waitingTime="0.00" waitingCount="0" stopTime="0.00" timeLoss="6.24" rerouteNo="0" devices="tripinfo_RB_L2I11" vType="Ego" speedFactor="1.08" vaporized=""/>
    <tripinfo id="RB_L0I16" depart="0.00" departLane="r2_0" departPos="144.50" departSpeed="0.00" departDelay="0.00" arrival="47.00" arrivalLane="r2_1" arrivalPos="366.00" arrivalSpeed="5.00" duration="47.00" routeLength="221.50" waitingTime="0.00" waitingCount="0" stopTime="0.00" timeLoss="2.70" rerouteNo="0" devices="tripinfo_RB_L0I16" vType="Ego" speedFactor="0.97" vaporized=""/>
    <tripinfo id="RB_L1I15" depart="0.00" departLane="r2_1" departPos="135.00" departSpeed="0.00" departDelay="0.00" arrival="49.00" arrivalLane="r2_1" arrivalPos="366.00" arrivalSpeed="5.00" duration="49.00" routeLength="231.00" waitingTime="0.00" waitingCount="0" stopTime="0.00" timeLoss="2.00" rerouteNo="0" devices="tripinfo_RB_L1I15" vType="Ego" speedFactor="1.04" vaporized=""/>
    <tripinfo id="RB_L0I17" depart="0.00" departLane="r2_0" departPos="135.00" departSpeed="0.00" departDelay="0.00" arrival="50.00" arrivalLane="r2_0" arrivalPos="366.00" arrivalSpeed="5.00" duration="50.00" routeLength="231.00" waitingTime="0.00" waitingCount="0" stopTime="0.00" timeLoss="2.93" rerouteNo="0" devices="tripinfo_RB_L0I17" vType="Ego" speedFactor="0.95" vaporized=""/>
    <tripinfo id="RB_L1I16" depart="0.00" departLane="r2_1" departPos="125.50" departSpeed="0.00" departDelay="0.00" arrival="51.00" arrivalLane="r2_1" arrivalPos="366.00" arrivalSpeed="5.00" duration="51.00" routeLength="240.50" waitingTime="0.00" waitingCount="0" stopTime="0.00" timeLoss="2.40" rerouteNo="0" devices="tripinfo_RB_L1I16" vType="Ego" speedFactor="0.94" vaporized=""/>
    <tripinfo id="RB_L2I12" depart="0.00" departLane="r2_2" departPos="163.50" departSpeed="0.00" departDelay="0.00" arrival="51.00" arrivalLane="r2_2" arrivalPos="366.00" arrivalSpeed="5.00" duration="51.00" routeLength="202.50" waitingTime="0.00" waitingCount="0" stopTime="0.00" timeLoss="10.35" rerouteNo="0" devices="tripinfo_RB_L2I12" vType="Ego" speedFactor="0.99" vaporized=""/>
    <tripinfo id="RB_L0I18" depart="0.00" departLane="r2_0" departPos="116.00" departSpeed="0.00" departDelay="0.00" arrival="52.00" arrivalLane="r2_0" arrivalPos="366.00" arrivalSpeed="5.00" duration="52.00" routeLength="250.00" waitingTime="0.00" waitingCount="0" stopTime="0.00" timeLoss="2.00" rerouteNo="0" devices="tripinfo_RB_L0I18" vType="Ego" speedFactor="0.95" vaporized=""/>
    <tripinfo id="RB_L1I17" depart="0.00" departLane="r2_1" departPos="116.00" departSpeed="0.00" departDelay="0.00" arrival="53.00" arrivalLane="r2_1" arrivalPos="366.00" arrivalSpeed="5.00" duration="53.00" routeLength="250.00" waitingTime="0.00" waitingCount="0" stopTime="0.00" timeLoss="2.70" rerouteNo="0" devices="tripinfo_RB_L1I17" vType="Ego" speedFactor="0.81" vaporized=""/>
    <tripinfo id="RB_L2I13" depart="0.00" departLane="r2_2" departPos="154.00" departSpeed="0.00" departDelay="0.00" arrival="53.00" arrivalLane="r2_2" arrivalPos="366.00" arrivalSpeed="5.00" duration="53.00" routeLength="212.00" waitingTime="0.00" waitingCount="0" stopTime="0.00" timeLoss="10.36" rerouteNo="0" devices="tripinfo_RB_L2I13" vType="Ego" speedFactor="1.14" vaporized=""/>
    <tripinfo id="RB_L0I19" depart="0.00" departLane="r2_0" departPos="106.50" departSpeed="0.00" departDelay="0.00" arrival="55.00" arrivalLane="r2_0" arrivalPos="366.00" arrivalSpeed="5.00" duration="55.00" routeLength="259.50" waitingTime="0.00" waitingCount="0" stopTime="0.00" timeLoss="2.40" rerouteNo="0" devices="tripinfo_RB_L0I19" vType="Ego" speedFactor="1.05" vaporized=""/>
    <tripinfo id="RB_L1I18" depart="0.00" departLane="r2_1" departPos="106.50" departSpeed="0.00" departDelay="0.00" arrival="55.00" arrivalLane="r2_1" arrivalPos="366.00" arrivalSpeed="5.00" duration="55.00" routeLength="259.50" waitingTime="0.00" waitingCount="0" stopTime="0.00" timeLoss="2.93" rerouteNo="0" devices="tripinfo_RB_L1I18" vType="Ego" speedFactor="0.95" vaporized=""/>
    <tripinfo id="RB_L2I14" depart="0.00" departLane="r2_2" departPos="144.50" departSpeed="0.00" departDelay="0.00" arrival="55.00" arrivalLane="r2_2" arrivalPos="366.00" arrivalSpeed="5.00" duration="55.00" routeLength="221.50" waitingTime="0.00" waitingCount="0" stopTime="0.00" timeLoss="10.37" rerouteNo="0" devices="tripinfo_RB_L2I14" vType="Ego" speedFactor="0.96" vaporized=""/>
    <tripinfo id="RB_L0I20" depart="0.00" departLane="r2_0" departPos="97.00" departSpeed="0.00" departDelay="0.00" arrival="57.00" arrivalLane="r2_0" arrivalPos="366.00" arrivalSpeed="5.00" duration="57.00" routeLength="269.00" waitingTime="0.00" waitingCount="0" stopTime="0.00" timeLoss="2.70" rerouteNo="0" devices="tripinfo_RB_L0I20" vType="Ego" speedFactor="0.96" vaporized=""/>
    <tripinfo id="RB_L1I19" depart="0.00" departLane="r2_1" departPos="97.00" departSpeed="0.00" departDelay="0.00" arrival="57.00" arrivalLane="r2_1" arrivalPos="366.00" arrivalSpeed="5.00" duration="57.00" routeLength="269.00" waitingTime="0.00" waitingCount="0" stopTime="0.00" timeLoss="3.09" rerouteNo="0" devices="tripinfo_RB_L1I19" vType="Ego" speedFactor="1.02" vaporized=""/>
    <tripinfo id="RB_L2I15" depart="0.00" departLane="r2_2" departPos="135.00" departSpeed="0.00" departDelay="0.00" arrival="57.00" arrivalLane="r2_2" arrivalPos="366.00" arrivalSpeed="5.00" duration="57.00" routeLength="231.00" waitingTime="0.00" waitingCount="0" stopTime="0.00" timeLoss="10.38" rerouteNo="0" devices="tripinfo_RB_L2I15" vType="Ego" speedFactor="1.01" vaporized=""/>
    <tripinfo id="RB_L0I21" depart="0.00" departLane="r2_0" departPos="87.50" departSpeed="0.00" departDelay="0.00" arrival="59.00" arrivalLane="r2_0" arrivalPos="366.00" arrivalSpeed="5.00" duration="59.00" routeLength="278.50" waitingTime="0.00" waitingCount="0" stopTime="0.00" timeLoss="2.93" rerouteNo="0" devices="tripinfo_RB_L0I21" vType="Ego" speedFactor="0.90" vaporized=""/>
    <tripinfo id="RB_L1I20" depart="0.00" departLane="r2_1" departPos="87.50" departSpeed="0.00" departDelay="0.00" arrival="59.00" arrivalLane="r2_1" arrivalPos="366.00" arrivalSpeed="5.00" duration="59.00" routeLength="278.50" waitingTime="0.00" waitingCount="0" stopTime="0.00" timeLoss="3.21" rerouteNo="0" devices="tripinfo_RB_L1I20" vType="Ego" speedFactor="1.04" vaporized=""/>
    <tripinfo id="RB_L2I16" depart="0.00" departLane="r2_2" departPos="125.50" departSpeed="0.00" departDelay="0.00" arrival="59.00" arrivalLane="r2_2" arrivalPos="366.00" arrivalSpeed="5.00" duration="59.00" routeLength="240.50" waitingTime="0.00" waitingCount="0" stopTime="0.00" timeLoss="10.38" rerouteNo="0" devices="tripinfo_RB_L2I16" vType="Ego" speedFactor="0.95" vaporized=""/>
    <tripinfo id="RB_L0I22" depart="0.00" departLane="r2_0" departPos="78.00" departSpeed="0.00" departDelay="0.00" arrival="61.00" arrivalLane="r2_0" arrivalPos="366.00" arrivalSpeed="5.00" duration="61.00" routeLength="288.00" waitingTime="0.00" waitingCount="0" stopTime="0.00" timeLoss="3.09" rerouteNo="0" devices="tripinfo_RB_L0I22" vType="Ego" speedFactor="1.05" vaporized=""/>
    <tripinfo id="RB_L2I17" depart="0.00" departLane="r2_2" departPos="106.50" departSpeed="0.00" departDelay="0.00" arrival="61.00" arrivalLane="r2_2" arrivalPos="366.00" arrivalSpeed="5.00" duration="61.00" routeLength="259.50" waitingTime="0.00" waitingCount="0" stopTime="0.00" timeLoss="8.50" rerouteNo="0" devices="tripinfo_RB_L2I17" vType="Ego" speedFactor="1.12" vaporized=""/>
    <tripinfo id="RB_L1I21" depart="0.00" departLane="r2_1" departPos="68.50" departSpeed="0.00" departDelay="0.00" arrival="62.00" arrivalLane="r2_1" arrivalPos="366.00" arrivalSpeed="5.00" duration="62.00" routeLength="297.50" waitingTime="0.00" waitingCount="0" stopTime="0.00" timeLoss="2.00" rerouteNo="0" devices="tripinfo_RB_L1I21" vType="Ego" speedFactor="0.96" vaporized=""/>
    <tripinfo id="RB_L2I18" depart="0.00" departLane="r2_2" departPos="97.00" departSpeed="0.00" departDelay="0.00" arrival="63.00" arrivalLane="r2_2" arrivalPos="366.00" arrivalSpeed="5.00" duration="63.00" routeLength="269.00" waitingTime="0.00" waitingCount="0" stopTime="0.00" timeLoss="8.58" rerouteNo="0" devices="tripinfo_RB_L2I18" vType="Ego" speedFactor="0.88" vaporized=""/>
    <tripinfo id="RB_L0I23" depart="0.00" departLane="r2_0" departPos="59.00" departSpeed="0.00" departDelay="0.00" arrival="64.00" arrivalLane="r2_0" arrivalPos="366.00" arrivalSpeed="5.00" duration="64.00" routeLength="307.00" waitingTime="0.00" waitingCount="0" stopTime="0.00" timeLoss="2.00" rerouteNo="0" devices="tripinfo_RB_L0I23" vType="Ego" speedFactor="1.13" vaporized=""/>
    <tripinfo id="RB_L1I22" depart="0.00" departLane="r2_1" departPos="59.00" departSpeed="0.00" departDelay="0.00" arrival="64.00" arrivalLane="r2_1" arrivalPos="366.00" arrivalSpeed="5.00" duration="64.00" routeLength="307.00" waitingTime="0.00" waitingCount="0" stopTime="0.00" timeLoss="2.40" rerouteNo="0" devices="tripinfo_RB_L1I22" vType="Ego" speedFactor="0.87" vaporized=""/>
    <tripinfo id="RB_L2I19" depart="0.00" departLane="r2_2" departPos="87.50" departSpeed="0.00" departDelay="0.00" arrival="65.00" arrivalLane="r2_2" arrivalPos="366.00" arrivalSpeed="5.00" duration="65.00" routeLength="278.50" waitingTime="0.00" waitingCount="0" stopTime="0.00" timeLoss="8.65" rerouteNo="0" devices="tripinfo_RB_L2I19" vType="Ego" speedFactor="1.19" vaporized=""/>
    <tripinfo id="RB_L0I24" depart="0.00" departLane="r2_0" departPos="49.50" departSpeed="0.00" departDelay="0.00" arrival="66.00" arrivalLane="r2_0" arrivalPos="366.00" arrivalSpeed="5.00" duration="66.00" routeLength="316.50" waitingTime="0.00" waitingCount="0" stopTime="0.00" timeLoss="2.40" rerouteNo="0" devices="tripinfo_RB_L0I24" vType="Ego" speedFactor="0.96" vaporized=""/>
    <tripinfo id="RB_L1I23" depart="0.00" departLane="r2_1" departPos="49.50" departSpeed="0.00" departDelay="0.00" arrival="66.00" arrivalLane="r2_1" arrivalPos="366.00" arrivalSpeed="5.00" duration="66.00" routeLength="316.50" waitingTime="0.00" waitingCount="0" stopTime="0.00" timeLoss="2.70" rerouteNo="0" devices="tripinfo_RB_L1I23" vType="Ego" speedFactor="0.96" vaporized=""/>
    <tripinfo id="RB_L2I20" depart="0.00" departLane="r2_2" departPos="59.00" departSpeed="0.00" departDelay="0.00" arrival="67.00" arrivalLane="r2_2" arrivalPos="366.00" arrivalSpeed="5.00" duration="67.00" routeLength="307.00" waitingTime="0.00" waitingCount="0" stopTime="0.00" timeLoss="5.07" rerouteNo="0" devices="tripinfo_RB_L2I20" vType="Ego" speedFactor="0.93" vaporized=""/>
    <tripinfo id="RB_L0I25" depart="0.00" departLane="r2_0" departPos="40.00" departSpeed="0.00" departDelay="0.00" arrival="68.00" arrivalLane="r2_0" arrivalPos="366.00" arrivalSpeed="5.00" duration="68.00" routeLength="326.00" waitingTime="0.00" waitingCount="0" stopTime="0.00" timeLoss="2.70" rerouteNo="0" devices="tripinfo_RB_L0I25" vType="Ego" speedFactor="1.11" vaporized=""/>
    <tripinfo id="RB_L1I24" depart="0.00" departLane="r2_1" departPos="30.50" departSpeed="0.00" departDelay="0.00" arrival="70.00" arrivalLane="r2_1" arrivalPos="366.00" arrivalSpeed="5.00" duration="70.00" routeLength="335.50" waitingTime="0.00" waitingCount="0" stopTime="0.00" timeLoss="2.00" rerouteNo="0" devices="tripinfo_RB_L1I24" vType="Ego" speedFactor="1.05" vaporized=""/>
    <tripinfo id="RB_L2I21" depart="0.00" departLane="r2_2" departPos="49.50" departSpeed="0.00" departDelay="0.00" arrival="70.00" arrivalLane="r2_2" arrivalPos="366.00" arrivalSpeed="5.00" duration="70.00" routeLength="316.50" waitingTime="0.00" waitingCount="0" stopTime="0.00" timeLoss="6.60" rerouteNo="0" devices="tripinfo_RB_L2I21" vType="Ego" speedFactor="0.81" vaporized=""/>
    <tripinfo id="RB_L0I26" depart="0.00" departLane="r2_0" departPos="30.50" departSpeed="0.00" departDelay="0.00" arrival="71.00" arrivalLane="r2_0" arrivalPos="366.00" arrivalSpeed="5.00" duration="71.00" routeLength="335.50" waitingTime="0.00" waitingCount="0" stopTime="0.00" timeLoss="2.93" rerouteNo="0" devices="tripinfo_RB_L0I26" vType="Ego" speedFactor="1.01" vaporized=""/>
    <tripinfo id="RB_L1I25" depart="0.00" departLane="r2_1" departPos="21.00" departSpeed="0.00" departDelay="0.00" arrival="72.00" arrivalLane="r2_2" arrivalPos="366.00" arrivalSpeed="5.00" duration="72.00" routeLength="345.00" waitingTime="0.00" waitingCount="0" stopTime="0.00" timeLoss="2.80" rerouteNo="0" devices="tripinfo_RB_L1I25" vType="Ego" speedFactor="0.89" vaporized=""/>