<?xml version="1.0" encoding="UTF-8"?>

<!-- generated on 09/25/20 21:16:32 by Eclipse SUMO Version v1_5_0+0833-59242a742f
<configuration xmlns:xsi="http://www.w3.org/2001/XMLSchema-instance" xsi:noNamespaceSchemaLocation="http://sumo.dlr.de/xsd/sumoConfiguration.xsd">

    <input>
        <net-file value="F:\10th%20semester%20isa\1%20GP\training_single_agent\Anarcho_AV&#45;&#45;-Multi-agent-RL-for-AV-traffic-clearance\Anarcho1.5\Sumo_files/Anarcho1.4.net.xml"/>
        <route-files value="F:\10th%20semester%20isa\1%20GP\training_single_agent\Anarcho_AV&#45;&#45;-Multi-agent-RL-for-AV-traffic-clearance\Anarcho1.5\Sumo_files/Anarcho1.4.rou.xml"/>
    </input>

    <output>
        <tripinfo-output value="tripinfo.xml"/>
    </output>

    <time>
        <begin value="0"/>
        <end value="10000"/>
    </time>

    <traci_server>
        <remote-port value="51592"/>
    </traci_server>

    <random_number>
        <seed value="5"/>
    </random_number>

    <gui_only>
        <quit-on-end value="true"/>
        <start value="true"/>
    </gui_only>

</configuration>
-->

<tripinfos xmlns:xsi="http://www.w3.org/2001/XMLSchema-instance" xsi:noNamespaceSchemaLocation="http://sumo.dlr.de/xsd/tripinfo_file.xsd">
    <tripinfo id="RB_L2I0" depart="0.00" departLane="r2_2" departPos="344.00" departSpeed="0.00" departDelay="0.00" arrival="7.00" arrivalLane="r2_2" arrivalPos="366.00" arrivalSpeed="5.00" duration="7.00" routeLength="22.00" waitingTime="0.00" waitingCount="0" stopTime="0.00" timeLoss="2.00" rerouteNo="0" devices="tripinfo_RB_L2I0" vType="Ego" speedFactor="0.93" vaporized=""/>
    <tripinfo id="RB_L2I1" depart="0.00" departLane="r2_2" departPos="325.00" departSpeed="0.00" departDelay="0.00" arrival="11.00" arrivalLane="r2_2" arrivalPos="366.00" arrivalSpeed="5.00" duration="11.00" routeLength="41.00" waitingTime="0.00" waitingCount="0" stopTime="0.00" timeLoss="2.00" rerouteNo="0" devices="tripinfo_RB_L2I1" vType="Ego" speedFactor="0.98" vaporized=""/>
