<?xml version="1.0" encoding="UTF-8"?>

<!-- generated on 03/30/20 21:49:15 by Eclipse SUMO GUI Version v1_5_0+0833-59242a742f
<configuration xmlns:xsi="http://www.w3.org/2001/XMLSchema-instance" xsi:noNamespaceSchemaLocation="http://sumo.dlr.de/xsd/sumoConfiguration.xsd">

    <input>
        <net-file value="F:\10th%20semester%20isa\1%20GP\training_single_agent\Anarcho_AV&#45;&#45;-Multi-agent-RL-for-AV-traffic-clearance\Anarcho1.3\Sumo_files/Anarcho1.3.net.xml"/>
        <route-files value="F:\10th%20semester%20isa\1%20GP\training_single_agent\Anarcho_AV&#45;&#45;-Multi-agent-RL-for-AV-traffic-clearance\Anarcho1.3\Sumo_files/Anarcho1.3.rou.xml"/>
    </input>

    <output>
        <tripinfo-output value="tripinfo.xml"/>
    </output>

    <time>
        <begin value="0"/>
        <end value="10000"/>
    </time>

    <report>
        <message-log value="&#45;&#45;no-step-log"/>
    </report>

    <gui_only>
        <start value="true"/>
    </gui_only>

</configuration>
-->

<tripinfos xmlns:xsi="http://www.w3.org/2001/XMLSchema-instance" xsi:noNamespaceSchemaLocation="http://sumo.dlr.de/xsd/tripinfo_file.xsd">
