<?xml version="1.0" encoding="UTF-8"?>

<!-- generated on 03/26/20 00:12:19 by Eclipse SUMO Version v1_5_0+0742-a5dc31a60d
<configuration xmlns:xsi="http://www.w3.org/2001/XMLSchema-instance" xsi:noNamespaceSchemaLocation="http://sumo.dlr.de/xsd/sumoConfiguration.xsd">

    <input>
        <net-file value="D:\Career\GP\RLRep\Anarcho1.3\Sumo_files/Anarcho1.3.net.xml"/>
        <route-files value="D:\Career\GP\RLRep\Anarcho1.3\Sumo_files/Anarcho1.3.rou.xml"/>
    </input>

    <output>
        <tripinfo-output value="tripinfo.xml"/>
    </output>

    <time>
        <begin value="0"/>
        <end value="10000"/>
    </time>

    <traci_server>
        <remote-port value="1074"/>
    </traci_server>

</configuration>
-->

<tripinfos xmlns:xsi="http://www.w3.org/2001/XMLSchema-instance" xsi:noNamespaceSchemaLocation="http://sumo.dlr.de/xsd/tripinfo_file.xsd">
    <tripinfo id="RB" depart="0.00" departLane="r2_0" departPos="2.10" departSpeed="0.00" departDelay="0.00" arrival="84.00" arrivalLane="r2_0" arrivalPos="411.00" arrivalSpeed="5.00" duration="84.00" routeLength="408.90" waitingTime="0.00" waitingCount="0" stopTime="0.00" timeLoss="2.00" rerouteNo="0" devices="tripinfo_RB" vType="Ego" speedFactor="1.06" vaporized=""/>
</tripinfos>
