<?xml version="1.0" encoding="UTF-8"?>

<!-- generated on Sun Mar 22 14:22:57 2020 by Eclipse SUMO Version 1.5.0
<configuration xmlns:xsi="http://www.w3.org/2001/XMLSchema-instance" xsi:noNamespaceSchemaLocation="http://sumo.dlr.de/xsd/sumoConfiguration.xsd">

    <input>
        <net-file value="/Users/Abdulhady/Desktop/GP/Anarcho_AV/Anarcho_AV&#45;&#45;-Multi-agent-RL-for-AV-traffic-clearance/Anarcho1.3/Sumo_files/Anarcho1.3.net.xml"/>
        <route-files value="/Users/Abdulhady/Desktop/GP/Anarcho_AV/Anarcho_AV&#45;&#45;-Multi-agent-RL-for-AV-traffic-clearance/Anarcho1.3/Sumo_files/Anarcho1.3.rou.xml"/>
    </input>

    <output>
        <tripinfo-output value="tripinfo.xml"/>
    </output>

    <time>
        <begin value="0"/>
        <end value="10000"/>
    </time>

    <traci_server>
        <remote-port value="49575"/>
    </traci_server>

</configuration>
-->

<tripinfos xmlns:xsi="http://www.w3.org/2001/XMLSchema-instance" xsi:noNamespaceSchemaLocation="http://sumo.dlr.de/xsd/tripinfo_file.xsd">
</tripinfos>
