<?xml version="1.0" encoding="UTF-8"?>

<!-- generated on 03/25/20 23:58:59 by Eclipse SUMO Version v1_5_0+0742-a5dc31a60d
<configuration xmlns:xsi="http://www.w3.org/2001/XMLSchema-instance" xsi:noNamespaceSchemaLocation="http://sumo.dlr.de/xsd/sumoConfiguration.xsd">

    <input>
        <net-file value="D:\Career\GP\RLRep\Anarcho1.3\Sumo_files/Anarcho1.3.net.xml"/>
        <route-files value="D:\Career\GP\RLRep\Anarcho1.3\Sumo_files/Anarcho1.3.rou.xml"/>
    </input>

    <output>
        <tripinfo-output value="tripinfo.xml"/>
    </output>

    <time>
        <begin value="0"/>
        <end value="10000"/>
    </time>

    <traci_server>
        <remote-port value="33989"/>
    </traci_server>

</configuration>
-->

<tripinfos xmlns:xsi="http://www.w3.org/2001/XMLSchema-instance" xsi:noNamespaceSchemaLocation="http://sumo.dlr.de/xsd/tripinfo_file.xsd">
</tripinfos>
